   * xtb version 6.4.1 (8725663466f2cbe4bcfeb424dbeae13262b6703d) compiled by 'salvador@Linux' on 07/21/2021
          program call               : xtb crest_best.xyz --charge 0 --ohess --alpb water
          number of atoms            :                    22
          number of electrons        :                    64
          charge                     :                     0

   ID    Z sym.   atoms
    1    8 O      1-3
    2    6 C      4-12
    3    1 H      13-22

        Solvent                        water
        Solvent mass                       1.8000E+01 g/mol
          :  Hamiltonian                  GFN2-xTB          :
 * total energy  :   -36.5690909 Eh     change       -0.1673826E-09 Eh
   *** GEOMETRY OPTIMIZATION CONVERGED AFTER 1 ITERATIONS ***

 final structure:
================
22
 xtb: 6.4.1 (8725663466f2cbe4bcfeb424dbeae13262b6703d)
O         0.77205485460000    2.26427145500000    0.61767170910000
O         1.85791953290000   -1.09836227800000    0.29726433040000
O         2.26319295250000    0.71593120020000   -0.96482715460000
C         0.65132497930000    0.88006844290000    0.79710540750000
C        -0.70325560040000    0.32617694180000    0.37678931230000
C        -1.10627503100000   -0.92275567990000    0.83289508280000
C        -1.52720898050000    1.04515727920000   -0.47550166160000
C         1.68911310140000    0.15595883140000   -0.05232321710000
C        -2.32336405800000   -1.44565922750000    0.43508377820000
C        -2.74780241660000    0.52090075040000   -0.86688705430000
C        -3.14612791850000   -0.72552610730000   -0.41637813300000
C         2.75837267720000   -1.90670940960000   -0.47465195040000
H         0.82640159510000    0.64962581020000    1.85468353660000
H        -0.46238478570000   -1.48234133090000    1.49428478010000
H        -1.21753713080000    2.02153549410000   -0.81433459230000
H        -2.63153502390000   -2.41605860930000    0.79271851780000
H        -3.38482179220000    1.08922571290000   -1.52722465000000
H        -4.09563813660000   -1.13470885400000   -0.72535851350000
H         1.30568559690000    2.41835238130000   -0.18181100780000
H         3.54371366830000   -1.28455266830000   -0.90407119490000
H         3.16839855870000   -2.63997819040000    0.21359167730000
H         2.19957267220000   -2.39707208300000   -1.27110472090000

          :  Hamiltonian                  GFN2-xTB          :
         :: gradient norm              0.000216239661 Eh/a0 ::
         :: HOMO-LUMO gap              4.006623371349 eV    ::
         :: SCC energy               -37.042411998758 Eh    ::
         :: -> dispersion             -0.018478007258 Eh    ::
         :: -> Gsolv                  -0.013139888388 Eh    ::
         :: repulsion energy           0.473174986457 Eh    ::

    * Orbital Energies and Occupations

         #    Occupation            Energy/Eh            Energy/eV
      -------------------------------------------------------------
         1        2.0000           -0.7647823             -20.8108
       ...           ...                  ...                  ...
        20        2.0000           -0.4941726             -13.4471
        21        2.0000           -0.4909606             -13.3597
        22        2.0000           -0.4903216             -13.3423
        23        2.0000           -0.4833584             -13.1529
        24        2.0000           -0.4811061             -13.0916
        25        2.0000           -0.4768626             -12.9761
        26        2.0000           -0.4601551             -12.5215
        27        2.0000           -0.4469907             -12.1632
        28        2.0000           -0.4420300             -12.0282
        29        2.0000           -0.4253000             -11.5730
        30        2.0000           -0.4164307             -11.3317
        31        2.0000           -0.4084379             -11.1142
        32        2.0000           -0.4019459             -10.9375 (HOMO)
        33                         -0.2547052              -6.9309 (LUMO)
        34                         -0.2268608              -6.1732
        35                         -0.2234724              -6.0810
        36                         -0.0980140              -2.6671
        37                         -0.0156339              -0.4254
        38                          0.0483087               1.3145
        39                          0.0877101               2.3867
        40                          0.1226945               3.3387
        41                          0.1257821               3.4227
        42                          0.1370813               3.7302
        43                          0.1467455               3.9931
       ...                                ...                  ...
        58                          0.6601110              17.9625
      -------------------------------------------------------------
                  HL-Gap            0.1472407 Eh            4.0066 eV

     #   Z          covCN         q      C6AA      α(0)
     1   8 O        1.655    -0.483    22.525     6.407
     2   8 O        1.703    -0.251    18.164     5.754
     3   8 O        0.856    -0.476    23.251     6.465
     4   6 C        3.732     0.089    19.199     6.254
     5   6 C        2.979    -0.004    28.110     8.697
     6   6 C        2.922    -0.043    29.068     8.841
     7   6 C        2.922    -0.034    28.848     8.808
     8   6 C        2.723     0.353    21.009     7.504
     9   6 C        2.920    -0.033    28.826     8.804
    10   6 C        2.920    -0.034    28.846     8.808
    11   6 C        2.920    -0.036    28.889     8.814
    12   6 C        3.648     0.000    20.904     6.569
    13   1 H        0.924     0.072     2.063     2.246
    14   1 H        0.926     0.046     2.371     2.408
    15   1 H        0.926     0.049     2.329     2.387
    16   1 H        0.926     0.050     2.314     2.379
    17   1 H        0.926     0.047     2.358     2.401
    18   1 H        0.926     0.048     2.343     2.394
    19   1 H        0.804     0.352     0.585     1.201
    20   1 H        0.925     0.084     1.935     2.176
    21   1 H        0.925     0.111     1.692     2.034
    22   1 H        0.925     0.092     1.858     2.131

Wiberg/Mayer (AO) data.
largest (>0.10) Wiberg bond orders for each atom

     #   Z sym  total        # sym  WBO       # sym  WBO       # sym  WBO
 ---------------------------------------------------------------------------
     1   8 O    1.938 --     4 C    1.010    19 H    0.846
     2   8 O    2.340 --     8 C    1.198    12 C    0.924     3 O    0.173
     3   8 O    1.990 --     8 C    1.678     2 O    0.173
     4   6 C    3.958 --     1 O    1.010     5 C    0.949    13 H    0.940
                             8 C    0.936
     5   6 C    3.983 --     7 C    1.421     6 C    1.406     4 C    0.949
                            11 C    0.108
     6   6 C    3.991 --     9 C    1.451     5 C    1.406    14 H    0.967
                            10 C    0.113
     7   6 C    3.991 --    10 C    1.436     5 C    1.421    15 H    0.966
                             9 C    0.110
     8   6 C    3.913 --     3 O    1.678     2 O    1.198     4 C    0.936
     9   6 C    3.991 --     6 C    1.451    11 C    1.432    16 H    0.969
                             7 C    0.110
    10   6 C    3.991 --    11 C    1.445     7 C    1.436    17 H    0.970
                             6 C    0.113
    11   6 C    3.989 --    10 C    1.445     9 C    1.432    18 H    0.970
                             5 C    0.108
    12   6 C    3.887 --    20 H    0.977    21 H    0.974    22 H    0.972
                             2 O    0.924
    13   1 H    0.995 --     4 C    0.940
    14   1 H    0.998 --     6 C    0.967
    15   1 H    0.998 --     7 C    0.966
    16   1 H    0.997 --     9 C    0.969
    17   1 H    0.997 --    10 C    0.970
    18   1 H    0.997 --    11 C    0.970
    19   1 H    0.876 --     1 O    0.846
    20   1 H    0.993 --    12 C    0.977
    21   1 H    0.987 --    12 C    0.974
    22   1 H    0.991 --    12 C    0.972
 ---------------------------------------------------------------------------

molecular dipole:
                 x           y           z       tot (Debye)
 q only:       -0.144      -1.482       0.016
   full:       -0.005      -1.531      -0.037       3.892

 projected vibrational frequencies (cm⁻¹)
eigval :       -0.00    -0.00    -0.00     0.00     0.00     0.00
eigval :       30.38    38.77    55.18    70.29   162.60   184.40
eigval :      222.01   245.50   315.60   343.48   354.51   370.99
eigval :      443.52   478.47   573.15   589.87   651.96   665.12
eigval :      717.22   764.85   831.02   875.90   899.80   917.26
eigval :      926.80   929.73   979.78   988.36  1081.19  1096.34
eigval :     1102.40  1123.47  1125.80  1142.64  1177.82  1180.18
eigval :     1197.24  1213.01  1230.58  1277.67  1305.49  1325.13
eigval :     1370.01  1423.27  1435.46  1438.28  1466.82  1592.46
eigval :     1595.91  1694.22  2913.67  3000.86  3002.93  3047.80
eigval :     3081.61  3084.32  3091.27  3097.91  3103.80  3372.11

   temp. (K)  partition function   enthalpy   heat capacity  entropy
                                   cal/mol     cal/K/mol   cal/K/mol   J/K/mol
 298.15  VIB  0.194E+05             5687.383     37.260     35.355
         ROT  0.115E+07              888.752      2.981     30.706
         INT  0.222E+11             6576.136     40.241     66.062
         TR   0.207E+28             1481.254      4.968     41.213
         TOT                        8057.3896    45.2093   107.2747   448.8373

       T/K    H(0)-H(T)+PV         H(T)/Eh          T*S/Eh         G(T)/Eh
   ------------------------------------------------------------------------
    298.15    0.128403E-01    0.181466E+00    0.509697E-01    0.130496E+00
   ------------------------------------------------------------------------

         :::::::::::::::::::::::::::::::::::::::::::::::::::::
         ::                  THERMODYNAMIC                  ::
         :::::::::::::::::::::::::::::::::::::::::::::::::::::
         :: total free energy         -36.438594474613 Eh   ::
         ::.................................................::
         :: total energy              -36.569090862508 Eh   ::
         :: zero point energy           0.168625787797 Eh   ::
         :: G(RRHO) w/o ZPVE           -0.038129399903 Eh   ::
         :: G(RRHO) contrib.            0.130496387895 Eh   ::
         :::::::::::::::::::::::::::::::::::::::::::::::::::::

           -------------------------------------------------
          | TOTAL ENERGY              -36.569090862508 Eh   |
          | TOTAL ENTHALPY            -36.387624807081 Eh   |
          | TOTAL FREE ENERGY         -36.438594474613 Eh   |
          | GRADIENT NORM               0.000216268143 Eh/α |
          | HOMO-LUMO GAP               4.006623178590 eV   |
           -------------------------------------------------

 * finished run on 2021/07/28 at 15:53:22.003
