   * xtb version 6.4.1 (1a3296197974bf90c4de5929bcb902c290d06ae5) compiled by 'salvador@Linux' on 07/07/2022
          program call               : xtb crest_best.xyz --charge 0 --ohess extreme --alpb water
          number of atoms            :                    21
          number of electrons        :                    74
          charge                     :                     0

   ID    Z sym.   atoms
    1    6 C      1-6, 8, 9
    2    7 N      7
    3    1 H      10-15
    4    8 O      16, 18-20
    5   16 S      17
    6   19 K      21

        Solvent                        water
        Solvent mass                       1.8000E+01 g/mol
          :  Hamiltonian                  GFN2-xTB          :
 * total energy  :   -43.0219903 Eh     change       -0.5027943E-09 Eh
 * total energy  :   -43.0219905 Eh     change       -0.2020049E-06 Eh
 * total energy  :   -43.0219907 Eh     change       -0.1197550E-06 Eh
 * total energy  :   -43.0219908 Eh     change       -0.9665762E-07 Eh
 * total energy  :   -43.0219908 Eh     change       -0.9516202E-07 Eh
 * total energy  :   -43.0219909 Eh     change       -0.9223749E-07 Eh
 * total energy  :   -43.0219910 Eh     change       -0.1030129E-06 Eh
 * total energy  :   -43.0219912 Eh     change       -0.1548429E-06 Eh
 * total energy  :   -43.0219914 Eh     change       -0.2355763E-06 Eh
 * total energy  :   -43.0219919 Eh     change       -0.4243577E-06 Eh
 * total energy  :   -43.0241332 Eh     change       -0.2750210E-05 Eh
 * total energy  :   -43.0241353 Eh     change       -0.2088434E-05 Eh
 * total energy  :   -43.0241365 Eh     change       -0.1231971E-05 Eh
 * total energy  :   -43.0241368 Eh     change       -0.3221621E-06 Eh
 * total energy  :   -43.0241371 Eh     change       -0.2594080E-06 Eh
 * total energy  :   -43.0241371 Eh     change       -0.2837840E-07 Eh
 * total energy  :   -43.0241372 Eh     change       -0.6894040E-07 Eh
 * total energy  :   -43.0241372 Eh     change       -0.5382063E-08 Eh
 * total energy  :   -43.0241372 Eh     change       -0.4698840E-07 Eh
   *** GEOMETRY OPTIMIZATION CONVERGED AFTER 75 ITERATIONS ***

 final structure:
================
21
 xtb: 6.4.1 (1a3296197974bf90c4de5929bcb902c290d06ae5)
C         2.67246377307948    1.36329497460427    0.00930574561058
C         3.98604915363211    1.17280255211410   -0.35117369354296
C         4.54025945773179   -0.11083382971115   -0.43910661794244
C         3.79491857557739   -1.23753687926572   -0.17353737757478
C         2.46286988262876   -1.05971241410002    0.19093327837286
C         1.89233204016767    0.23705024248157    0.28354874189817
N         1.49424106337175   -1.97298635341306    0.48854305379597
C         0.32953315577146   -1.31205819258180    0.78487600513373
C         0.53521317580303    0.04030655170214    0.68142816311195
H         2.23291180691503    2.34684505259923    0.07902565207961
H         4.60648579686155    2.02756224335675   -0.57134243362507
H         5.57609632586718   -0.21092994297347   -0.72234625528709
H         4.22638019419155   -2.22298213971480   -0.24259869101605
H         1.63077674718258   -2.97036624092132    0.57471545852354
H        -0.55445973685882   -1.82380933440796    1.12342778850862
O        -0.39036124962284    1.06108319724892    0.90367379647315
S        -1.67611551897495    1.09235552576082   -0.03695929669143
O        -2.30715686649767    2.35508266822722    0.23362293386267
O        -2.49094348871833   -0.07531420455812    0.30413163682488
O        -1.21121353267588    0.91770659959720   -1.41407746549774
K        -2.08304148993348   -1.21873755134446   -1.68859575761734

          :  Hamiltonian                  GFN2-xTB          :
         :: gradient norm              0.000073872204 Eh/a0 ::
         :: HOMO-LUMO gap              0.782656940725 eV    ::
         :: SCC energy               -43.514938231600 Eh    ::
         :: -> dispersion             -0.025428173477 Eh    ::
         :: -> Gsolv                  -0.069964460798 Eh    ::
         :: repulsion energy           0.490712845298 Eh    ::

    * Orbital Energies and Occupations

         #    Occupation            Energy/Eh            Energy/eV
      -------------------------------------------------------------
         1        2.0000           -0.7937200             -21.5982
       ...           ...                  ...                  ...
        25        2.0000           -0.4888318             -13.3018
        26        2.0000           -0.4878192             -13.2742
        27        2.0000           -0.4872684             -13.2592
        28        2.0000           -0.4742894             -12.9061
        29        2.0000           -0.4703835             -12.7998
        30        2.0000           -0.4676715             -12.7260
        31        2.0000           -0.4623530             -12.5813
        32        2.0000           -0.4588455             -12.4858
        33        2.0000           -0.4375167             -11.9054
        34        2.0000           -0.4299059             -11.6983
        35        2.0000           -0.4258488             -11.5879
        36        2.0000           -0.3978806             -10.8269
        37        2.0000           -0.3793354             -10.3222 (HOMO)
        38        0.0000           -0.3505733              -9.5396 (LUMO)
        39                         -0.2464251              -6.7056
        40                         -0.2108427              -5.7373
        41                         -0.1811269              -4.9287
        42                         -0.1197038              -3.2573
        43                         -0.0885435              -2.4094
        44                         -0.0866065              -2.3567
        45                         -0.0789413              -2.1481
        46                         -0.0445951              -1.2135
        47                         -0.0028500              -0.0776
        48                          0.0190410               0.5181
       ...                                ...                  ...
        71                          1.2052862              32.7975
      -------------------------------------------------------------
                  HL-Gap            0.0287621 Eh            0.7827 eV

     #   Z          covCN         q      C6AA      α(0)
     1   6 C        2.909    -0.035    28.872     8.811
     2   6 C        2.920    -0.042    29.050     8.839
     3   6 C        2.923    -0.038    28.953     8.824
     4   6 C        2.908    -0.054    29.348     8.883
     5   6 C        3.087     0.048    26.824     8.490
     6   6 C        3.097    -0.032    28.663     8.774
     7   7 N        2.775    -0.097    23.146     7.145
     8   6 C        3.284    -0.049    27.645     8.453
     9   6 C        3.200     0.086    25.568     8.240
    10   1 H        0.926     0.022     2.704     2.571
    11   1 H        0.926     0.051     2.303     2.373
    12   1 H        0.926     0.066     2.130     2.282
    13   1 H        0.926     0.080     1.979     2.200
    14   1 H        0.860     0.270     0.811     1.411
    15   1 H        0.951     0.091     1.862     2.133
    16   8 O        1.719    -0.490    22.659     6.427
    17  16 S        4.364     1.601    91.041    16.059
    18   8 O        0.861    -0.747    30.031     7.347
    19   8 O        1.503    -0.786    30.214     7.413
    20   8 O        1.503    -0.790    30.345     7.429
    21  19 K        2.408     0.846   151.427    38.988

Wiberg/Mayer (AO) data.
largest (>0.10) Wiberg bond orders for each atom

     #   Z sym  total        # sym  WBO       # sym  WBO       # sym  WBO
 ---------------------------------------------------------------------------
     1   6 C    3.989 --     2 C    1.517     6 C    1.318    10 H    0.970
                             4 C    0.116
     2   6 C    3.985 --     1 C    1.517     3 C    1.359    11 H    0.969
     3   6 C    3.984 --     4 C    1.506     2 C    1.359    12 H    0.968
     4   6 C    3.979 --     3 C    1.506     5 C    1.325    13 H    0.960
                             1 C    0.116
     5   6 C    3.959 --     4 C    1.325     6 C    1.244     7 N    1.188
     6   6 C    3.979 --     1 C    1.318     5 C    1.244     9 C    1.201
     7   7 N    3.553 --     8 C    1.214     5 C    1.188    14 H    0.893
     8   6 C    3.959 --     9 C    1.532     7 N    1.214    15 H    0.937
     9   6 C    3.850 --     8 C    1.532     6 C    1.201    16 O    0.922
    10   1 H    0.999 --     1 C    0.970
    11   1 H    0.997 --     2 C    0.969
    12   1 H    0.995 --     3 C    0.968
    13   1 H    0.991 --     4 C    0.960
    14   1 H    0.927 --     7 N    0.893
    15   1 H    0.991 --     8 C    0.937
    16   8 O    2.105 --     9 C    0.922    17 S    0.896
    17  16 S    4.878 --    18 O    1.413    20 O    1.302    19 O    1.299
                            16 O    0.896
    18   8 O    1.714 --    17 S    1.413    19 O    0.103    20 O    0.102
    19   8 O    1.684 --    17 S    1.299    18 O    0.103    20 O    0.102
    20   8 O    1.680 --    17 S    1.302    19 O    0.102    18 O    0.102
    21  19 K    0.278 -- ---------------------------------------------------------------------------

Topologies differ in total number of bonds
Writing topology from bond orders to xtbtopo.mol

molecular dipole:
                 x           y           z       tot (Debye)
 q only:        2.010      -5.773      -1.986
   full:        1.515      -5.256      -1.809      14.644
molecular quadrupole (traceless):
                xx          xy          yy          xz          yz          zz
 q only:        1.503      15.441      -0.639      14.638       7.109      -0.864
  q+dip:        0.030      15.782       2.123      13.915       5.404      -2.154
   full:       -2.132      16.100       1.870      15.027       7.598       0.262

           -------------------------------------------------

 projected vibrational frequencies (cm⁻¹)
eigval :       -0.00    -0.00     0.00     0.00     0.00     0.00
eigval :       20.25    41.64    54.09    79.34   114.53   155.97
eigval :      182.38   189.56   211.44   297.42   328.48   377.04
eigval :      397.37   458.16   459.67   489.75   491.36   506.99
eigval :      544.62   547.81   562.48   602.30   687.32   703.43
eigval :      729.57   749.68   772.79   787.54   850.70   864.99
eigval :      903.32   920.97   973.93  1029.96  1047.53  1057.92
eigval :     1075.42  1141.67  1149.12  1173.26  1175.67  1219.72
eigval :     1282.17  1302.93  1353.59  1365.54  1405.83  1490.96
eigval :     1532.66  1571.73  1609.30  3079.34  3092.24  3098.04
Molecule has no symmetry elements
It seems to be the C1 point group
eigval :     3102.12  3108.32  3402.87

   temp. (K)  partition function   enthalpy   heat capacity  entropy
                                   cal/mol     cal/K/mol   cal/K/mol   J/K/mol
 298.15  VIB  0.110E+06             6850.461     44.838     42.312
         ROT  0.298E+07              888.752      2.981     32.609
         INT  0.327E+12             7739.214     47.819     74.920
         TR   0.385E+28             1481.254      4.968     42.445
         TOT                        9220.4676    52.7869   117.3659   491.0591

       T/K    H(0)-H(T)+PV         H(T)/Eh          T*S/Eh         G(T)/Eh
   ------------------------------------------------------------------------
    298.15    0.146938E-01    0.146656E+00    0.557643E-01    0.908919E-01
   ------------------------------------------------------------------------

         :::::::::::::::::::::::::::::::::::::::::::::::::::::
         ::                  THERMODYNAMIC                  ::
         :::::::::::::::::::::::::::::::::::::::::::::::::::::
         :: total free energy         -42.933245357184 Eh   ::
         ::.................................................::
         :: total energy              -43.024137215820 Eh   ::
         :: zero point energy           0.131962455003 Eh   ::
         :: G(RRHO) w/o ZPVE           -0.041070596367 Eh   ::
         :: G(RRHO) contrib.            0.090891858635 Eh   ::
         :::::::::::::::::::::::::::::::::::::::::::::::::::::

           -------------------------------------------------
          | TOTAL ENERGY              -43.024137215820 Eh   |
          | TOTAL ENTHALPY            -42.877481010461 Eh   |
          | TOTAL FREE ENERGY         -42.933245357184 Eh   |
          | GRADIENT NORM               0.000073866014 Eh/α |
          | HOMO-LUMO GAP               0.782656393647 eV   |
           -------------------------------------------------

 * finished run on 2022/09/13 at 14:12:53.590
