   * xtb version 6.4.1 (1a3296197974bf90c4de5929bcb902c290d06ae5) compiled by 'salvador@Linux' on 07/07/2022
          program call               : xtb isk.xyz --charge 0 --opt extreme
          number of atoms            :                    21
          number of electrons        :                    74
          charge                     :                     0
          spin                       :                   0.0

   ID    Z sym.   atoms
    1    6 C1     1
    2    6 C2     2
    3    6 C3     3
    4    6 C4     4
    5    6 C5     5
    6    6 C6     6
    7    7 N1     7
    8    6 C7     8
    9    6 C8     9
   10    1 H1     10
   11    1 H2     11
   12    1 H3     12
   13    1 H4     13
   14    1 H5     14
   15    1 H6     15
   16    8 O1     16, 18
   17   16 S1     17
   18    8 O2     19
   19    8 O3     20
   20   19 K1     21

          :  Hamiltonian                  GFN2-xTB          :
 * total energy  :   -42.9725736 Eh     change       -0.1457430E-08 Eh
   *** GEOMETRY OPTIMIZATION CONVERGED AFTER 1 ITERATIONS ***

 final structure:
================
21
 xtb: 6.4.1 (1a3296197974bf90c4de5929bcb902c290d06ae5)
C1       -0.00139079466617    0.63876397211899    0.15702868180924
C2        0.83414312472715   -0.45258611147098    0.22857076873149
C3        2.22333631394902   -0.31298617466459    0.14433355824422
C4        2.81302390568035    0.92227164577754   -0.01366395442947
C5        1.97807664301731    2.03181794757791   -0.08710249292113
C6        0.56983499762708    1.90104849765644   -0.00285176337428
N1        2.26712823746840    3.35471719338551   -0.23907203333452
C7        1.09195791561185    4.07484918203615   -0.25516414536956
C8        0.03657000579974    3.22522166690821   -0.11388184489264
H1       -1.07314274769018    0.53818305839154    0.22123421540419
H2        0.41625901617525   -1.44060725710597    0.35228045141579
H3        2.84436162922098   -1.19450302769882    0.20478652859023
H4        3.88596255159416    1.02805726021761   -0.07853625896189
H5        3.18761152024807    3.74906358945054   -0.32642805089873
H6        1.08171273704852    5.14294944424526   -0.36596558653734
O1       -1.29812417925640    3.49866622696253   -0.07567475594996
S1       -1.78248212550474    5.01898530212897   -0.19905789632113
O1       -3.20905476299819    4.98153317403419   -0.12111817184357
O2       -1.27441493483372    5.56908309990848   -1.46038157525251
O3       -1.15260262064092    5.79700767906283    0.87309146667310
K1       -1.03407832457756    7.60643994207839   -0.49118180578115

          :  Hamiltonian                  GFN2-xTB          :
         :: total energy             -42.972573562902 Eh    ::
         :: gradient norm              0.000039507904 Eh/a0 ::
         :: HOMO-LUMO gap              0.857165015151 eV    ::
         :: SCC energy               -43.472764754540 Eh    ::
         :: -> dispersion             -0.024780300815 Eh    ::
         :: repulsion energy           0.500213105721 Eh    ::

    * Orbital Energies and Occupations

         #    Occupation            Energy/Eh            Energy/eV
      -------------------------------------------------------------
         1        2.0000           -0.7444698             -20.2581
       ...           ...                  ...                  ...
        25        2.0000           -0.4640530             -12.6275
        26        2.0000           -0.4541839             -12.3590
        27        2.0000           -0.4399595             -11.9719
        28        2.0000           -0.4374343             -11.9032
        29        2.0000           -0.4369336             -11.8896
        30        2.0000           -0.4233725             -11.5206
        31        2.0000           -0.4165149             -11.3339
        32        2.0000           -0.4145270             -11.2799
        33        2.0000           -0.4138745             -11.2621
        34        2.0000           -0.4085869             -11.1182
        35        2.0000           -0.4052489             -11.0274
        36        2.0000           -0.3825081             -10.4086
        37        2.0000           -0.3570090              -9.7147 (HOMO)
        38        0.0000           -0.3255087              -8.8575 (LUMO)
        39                         -0.2295977              -6.2477
        40                         -0.1973190              -5.3693
        41                         -0.1526572              -4.1540
        42                         -0.1131150              -3.0780
        43                         -0.0807559              -2.1975
        44                         -0.0715643              -1.9474
        45                         -0.0666125              -1.8126
        46                          0.0036694               0.0998
        47                          0.0262494               0.7143
        48                          0.0499117               1.3582
       ...                                ...                  ...
        71                          1.2888880              35.0724
      -------------------------------------------------------------
                  HL-Gap            0.0315002 Eh            0.8572 eV

     #   Z          covCN         q      C6AA      α(0)
     1   6 C1       2.910    -0.027    28.677     8.781
     2   6 C2       2.920    -0.041    29.010     8.832
     3   6 C3       2.924    -0.035    28.875     8.812
     4   6 C4       2.908    -0.052    29.297     8.875
     5   6 C5       3.079     0.045    26.908     8.504
     6   6 C6       3.107    -0.020    28.358     8.725
     7   7 N1       2.779    -0.104    23.271     7.165
     8   6 C7       3.020    -0.039    28.935     8.824
     9   6 C8       3.118     0.118    25.250     8.230
    10   1 H1       0.926     0.045     2.379     2.412
    11   1 H2       0.926     0.036     2.504     2.475
    12   1 H3       0.926     0.035     2.511     2.478
    13   1 H4       0.926     0.031     2.573     2.508
    14   1 H5       0.860     0.171     1.269     1.765
    15   1 H6       0.953     0.046     2.370     2.407
    16   8 O1       1.712    -0.417    21.167     6.212
    17  16 S1       4.365     1.557    92.080    16.150
    18   8 O1       0.995    -0.646    27.179     6.993
    19   8 O2       1.503    -0.748    29.136     7.279
    20   8 O3       1.503    -0.748    29.135     7.279
    21  19 K1       2.198     0.792   152.266    39.096

Wiberg/Mayer (AO) data.
largest (>0.10) Wiberg bond orders for each atom

     #   Z sym  total        # sym  WBO       # sym  WBO       # sym  WBO
 ---------------------------------------------------------------------------
     1   6 C1   3.991 --     2 C2   1.506     6 C6   1.332    10 H1   0.969
                             4 C4   0.114
     2   6 C2   3.990 --     1 C1   1.506     3 C3   1.369    11 H2   0.971
     3   6 C3   3.991 --     4 C4   1.495     2 C2   1.369    12 H3   0.972
     4   6 C4   3.987 --     3 C3   1.495     5 C5   1.334    13 H4   0.968
                             1 C1   0.114
     5   6 C5   3.956 --     4 C4   1.334     6 C6   1.245     7 N1   1.180
     6   6 C6   3.975 --     1 C1   1.332     5 C5   1.245     9 C8   1.175
     7   7 N1   3.526 --     5 C5   1.180     8 C7   1.174    14 H5   0.943
     8   6 C7   3.946 --     9 C8   1.559     7 N1   1.174    15 H6   0.949
     9   6 C8   3.896 --     8 C7   1.559     6 C6   1.175    16 O1   0.998
    10   1 H1   0.998 --     1 C1   0.969
    11   1 H2   0.998 --     2 C2   0.971
    12   1 H3   0.998 --     3 C3   0.972
    13   1 H4   0.998 --     4 C4   0.968
    14   1 H5   0.969 --     7 N1   0.943
    15   1 H6   0.997 --     8 C7   0.949
    16   8 O1   2.200 --     9 C8   0.998    17 S1   0.876
    17  16 S1   4.941 --    18 O1   1.466    20 O3   1.308    19 O2   1.308
                            16 O1   0.876
    18   8 O1   1.829 --    17 S1   1.466    19 O2   0.107    20 O3   0.107
    19   8 O2   1.746 --    17 S1   1.308    21 K1   0.156    18 O1   0.107
                            20 O3   0.102
    20   8 O3   1.746 --    17 S1   1.308    21 K1   0.156    18 O1   0.107
                            19 O2   0.102
    21  19 K1   0.387 --    19 O2   0.156    20 O3   0.156
 ---------------------------------------------------------------------------

molecular dipole:
                 x           y           z       tot (Debye)
 q only:        2.193       2.631      -0.369
   full:        2.188       2.695      -0.377       8.875

           -------------------------------------------------
          | TOTAL ENERGY              -42.972573562902 Eh   |
          | GRADIENT NORM               0.000039507904 Eh/α |
          | HOMO-LUMO GAP               0.857165015151 eV   |
           -------------------------------------------------

 * finished run on 2022/09/13 at 13:45:09.878
