   * xtb version 6.4.1 (8725663466f2cbe4bcfeb424dbeae13262b6703d) compiled by 'salvador@Linux' on 07/21/2021
          program call               : xtb crest_best.xyz --charge 0 --ohess --alpb water
          number of atoms            :                    22
          number of electrons        :                    64
          charge                     :                     0

   ID    Z sym.   atoms
    1    8 O      1-3
    2    6 C      4-12
    3    1 H      13-22

        Solvent                        water
        Solvent mass                       1.8000E+01 g/mol
          :  Hamiltonian                  GFN2-xTB          :
 * total energy  :   -36.5690903 Eh     change       -0.1675104E-09 Eh
   *** GEOMETRY OPTIMIZATION CONVERGED AFTER 1 ITERATIONS ***

 final structure:
================
22
 xtb: 6.4.1 (8725663466f2cbe4bcfeb424dbeae13262b6703d)
O        -0.77125872660000   -2.26276109100000   -0.62188273340000
O        -1.85970061650000    1.09785476520000   -0.29564312700000
O        -2.26239677480000   -0.71829927250000    0.96528369460000
C        -0.65121228380000   -0.87805281090000   -0.79761321690000
C         0.70332812330000   -0.32488675610000   -0.37629887410000
C         1.10863911010000    0.92262060620000   -0.83409611220000
C         1.52537410780000   -1.04354356830000    0.47803979440000
C        -1.68951262270000   -0.15640393310000    0.05327807140000
C         2.32647387990000    1.44413379270000   -0.43662964080000
C         2.74656153330000   -0.52061950410000    0.86936564110000
C         3.14748885980000    0.72414011320000    0.41662423020000
C        -2.76140144220000    1.90667565840000    0.47439534270000
H        -0.82640009040000   -0.64490974850000   -1.85453899400000
H         0.46605427500000    1.48214711640000   -1.49681694250000
H         1.21371402870000   -2.01856437110000    0.81897237010000
H         2.63659966280000    2.41322894070000   -0.79602391130000
H         3.38218610480000   -1.08873126290000    1.53110247210000
H         4.09788279820000    1.13184017580000    0.72484677630000
H        -1.30345245680000   -2.41932043870000    0.17798289590000
H        -2.19465570700000    2.43225873770000    1.24212983320000
H        -3.20570150600000    2.61096461700000   -0.22304181760000
H        -3.52123499240000    1.27876434830000    0.93978136570000

          :  Hamiltonian                  GFN2-xTB          :
         :: gradient norm              0.000115768015 Eh/a0 ::
         :: HOMO-LUMO gap              4.009187658288 eV    ::
         :: SCC energy               -37.042474478731 Eh    ::
         :: -> dispersion             -0.018473574778 Eh    ::
         :: -> Gsolv                  -0.013151138594 Eh    ::
         :: repulsion energy           0.473238101644 Eh    ::

    * Orbital Energies and Occupations

         #    Occupation            Energy/Eh            Energy/eV
      -------------------------------------------------------------
         1        2.0000           -0.7647673             -20.8104
       ...           ...                  ...                  ...
        20        2.0000           -0.4941894             -13.4476
        21        2.0000           -0.4909370             -13.3591
        22        2.0000           -0.4903108             -13.3420
        23        2.0000           -0.4832529             -13.1500
        24        2.0000           -0.4811042             -13.0915
        25        2.0000           -0.4769472             -12.9784
        26        2.0000           -0.4599352             -12.5155
        27        2.0000           -0.4470567             -12.1650
        28        2.0000           -0.4420602             -12.0291
        29        2.0000           -0.4253086             -11.5732
        30        2.0000           -0.4164168             -11.3313
        31        2.0000           -0.4084445             -11.1143
        32        2.0000           -0.4019657             -10.9380 (HOMO)
        33                         -0.2546308              -6.9289 (LUMO)
        34                         -0.2268716              -6.1735
        35                         -0.2234793              -6.0812
        36                         -0.0980275              -2.6675
        37                         -0.0158608              -0.4316
        38                          0.0484960               1.3196
        39                          0.0877889               2.3889
        40                          0.1228462               3.3428
        41                          0.1257507               3.4219
        42                          0.1372422               3.7345
        43                          0.1467495               3.9933
       ...                                ...                  ...
        58                          0.6601543              17.9637
      -------------------------------------------------------------
                  HL-Gap            0.1473349 Eh            4.0092 eV

     #   Z          covCN         q      C6AA      α(0)
     1   8 O        1.655    -0.483    22.524     6.407
     2   8 O        1.703    -0.251    18.165     5.754
     3   8 O        0.856    -0.476    23.256     6.466
     4   6 C        3.732     0.089    19.199     6.254
     5   6 C        2.979    -0.004    28.110     8.697
     6   6 C        2.922    -0.043    29.067     8.841
     7   6 C        2.922    -0.034    28.848     8.808
     8   6 C        2.723     0.353    21.007     7.503
     9   6 C        2.920    -0.033    28.826     8.804
    10   6 C        2.920    -0.034    28.846     8.808
    11   6 C        2.920    -0.036    28.889     8.814
    12   6 C        3.648    -0.000    20.912     6.570
    13   1 H        0.924     0.072     2.063     2.246
    14   1 H        0.926     0.046     2.372     2.408
    15   1 H        0.926     0.049     2.330     2.387
    16   1 H        0.926     0.050     2.314     2.379
    17   1 H        0.926     0.047     2.358     2.401
    18   1 H        0.926     0.048     2.343     2.393
    19   1 H        0.804     0.352     0.585     1.201
    20   1 H        0.925     0.093     1.849     2.127
    21   1 H        0.925     0.110     1.696     2.036
    22   1 H        0.925     0.084     1.935     2.175

Wiberg/Mayer (AO) data.
largest (>0.10) Wiberg bond orders for each atom

     #   Z sym  total        # sym  WBO       # sym  WBO       # sym  WBO
 ---------------------------------------------------------------------------
     1   8 O    1.938 --     4 C    1.010    19 H    0.846
     2   8 O    2.341 --     8 C    1.198    12 C    0.923     3 O    0.173
     3   8 O    1.990 --     8 C    1.678     2 O    0.173
     4   6 C    3.958 --     1 O    1.010     5 C    0.949    13 H    0.940
                             8 C    0.935
     5   6 C    3.983 --     7 C    1.421     6 C    1.406     4 C    0.949
                            11 C    0.108
     6   6 C    3.991 --     9 C    1.451     5 C    1.406    14 H    0.967
                            10 C    0.113
     7   6 C    3.991 --    10 C    1.436     5 C    1.421    15 H    0.966
                             9 C    0.110
     8   6 C    3.913 --     3 O    1.678     2 O    1.198     4 C    0.935
     9   6 C    3.991 --     6 C    1.451    11 C    1.432    16 H    0.969
                             7 C    0.110
    10   6 C    3.991 --    11 C    1.445     7 C    1.436    17 H    0.970
                             6 C    0.113
    11   6 C    3.989 --    10 C    1.445     9 C    1.432    18 H    0.970
                             5 C    0.108
    12   6 C    3.887 --    22 H    0.977    21 H    0.973    20 H    0.972
                             2 O    0.923
    13   1 H    0.995 --     4 C    0.940
    14   1 H    0.998 --     6 C    0.967
    15   1 H    0.998 --     7 C    0.966
    16   1 H    0.997 --     9 C    0.969
    17   1 H    0.997 --    10 C    0.970
    18   1 H    0.997 --    11 C    0.970
    19   1 H    0.876 --     1 O    0.846
    20   1 H    0.991 --    12 C    0.972
    21   1 H    0.988 --    12 C    0.973
    22   1 H    0.993 --    12 C    0.977
 ---------------------------------------------------------------------------

molecular dipole:
                 x           y           z       tot (Debye)
 q only:        0.143       1.483      -0.015
   full:        0.004       1.532       0.039       3.895

 projected vibrational frequencies (cm⁻¹)
eigval :       -0.00    -0.00     0.00     0.00     0.00     0.00
eigval :       29.00    32.89    54.49    69.58   162.37   184.05
eigval :      221.93   245.22   315.99   342.25   355.02   370.76
eigval :      443.38   478.38   573.15   589.86   651.85   665.09
eigval :      717.00   764.81   830.96   875.66   899.67   917.27
eigval :      926.60   929.58   979.67   988.24  1081.18  1096.23
eigval :     1102.30  1123.29  1124.89  1142.92  1177.79  1180.39
eigval :     1197.31  1213.22  1230.56  1277.68  1305.50  1325.21
eigval :     1369.68  1423.43  1435.46  1437.88  1466.88  1592.59
eigval :     1595.91  1694.55  2914.21  3001.78  3003.51  3045.57
eigval :     3081.89  3084.61  3091.35  3097.89  3103.93  3373.25

   temp. (K)  partition function   enthalpy   heat capacity  entropy
                                   cal/mol     cal/K/mol   cal/K/mol   J/K/mol
 298.15  VIB  0.241E+05             5700.675     37.269     35.428
         ROT  0.115E+07              888.752      2.981     30.707
         INT  0.276E+11             6589.427     40.250     66.136
         TR   0.207E+28             1481.254      4.968     41.213
         TOT                        8070.6808    45.2177   107.3489   449.1480

       T/K    H(0)-H(T)+PV         H(T)/Eh          T*S/Eh         G(T)/Eh
   ------------------------------------------------------------------------
    298.15    0.128614E-01    0.181463E+00    0.510049E-01    0.130458E+00
   ------------------------------------------------------------------------

         :::::::::::::::::::::::::::::::::::::::::::::::::::::
         ::                  THERMODYNAMIC                  ::
         :::::::::::::::::::::::::::::::::::::::::::::::::::::
         :: total free energy         -36.438632160027 Eh   ::
         ::.................................................::
         :: total energy              -36.569090288006 Eh   ::
         :: zero point energy           0.168601627532 Eh   ::
         :: G(RRHO) w/o ZPVE           -0.038143499553 Eh   ::
         :: G(RRHO) contrib.            0.130458127979 Eh   ::
         :::::::::::::::::::::::::::::::::::::::::::::::::::::

           -------------------------------------------------
          | TOTAL ENERGY              -36.569090288006 Eh   |
          | TOTAL ENTHALPY            -36.387627211918 Eh   |
          | TOTAL FREE ENERGY         -36.438632160027 Eh   |
          | GRADIENT NORM               0.000115756280 Eh/α |
          | HOMO-LUMO GAP               4.009187465612 eV   |
           -------------------------------------------------

 * finished run on 2021/07/28 at 15:26:52.912
